 Entering Gaussian System, Link 0=g03
 Initial command:
 /Volumes/m09nfshdd03/applications/g03/l1.exe /Users/maezono/qmc_tutorial_2012/molecule/0_g03_gwfn/Gau-58741.inp -scrdir=/Users/maezono/qmc_tutorial_2012/molecule/0_g03_gwfn/
 Entering Link 1 = /Volumes/m09nfshdd03/applications/g03/l1.exe PID=     58742.
  
 Copyright (c) 1988,1990,1992,1993,1995,1998,2003,2004,2007, Gaussian, Inc.
                  All Rights Reserved.
  
 This is the Gaussian(R) 03 program.  It is based on the
 the Gaussian(R) 98 system (copyright 1998, Gaussian, Inc.),
 the Gaussian(R) 94 system (copyright 1995, Gaussian, Inc.),
 the Gaussian 92(TM) system (copyright 1992, Gaussian, Inc.),
 the Gaussian 90(TM) system (copyright 1990, Gaussian, Inc.),
 the Gaussian 88(TM) system (copyright 1988, Gaussian, Inc.),
 the Gaussian 86(TM) system (copyright 1986, Carnegie Mellon
 University), and the Gaussian 82(TM) system (copyright 1983,
 Carnegie Mellon University). Gaussian is a federally registered
 trademark of Gaussian, Inc.
  
 This software contains proprietary and confidential information,
 including trade secrets, belonging to Gaussian, Inc.
  
 This software is provided under written license and may be
 used, copied, transmitted, or stored only in accord with that
 written license.
  
 The following legend is applicable only to US Government
 contracts under FAR:
  
                    RESTRICTED RIGHTS LEGEND
  
 Use, reproduction and disclosure by the US Government is
 subject to restrictions as set forth in subparagraphs (a)
 and (c) of the Commercial Computer Software - Restricted
 Rights clause in FAR 52.227-19.
  
 Gaussian, Inc.
 340 Quinnipiac St., Bldg. 40, Wallingford CT 06492
  
  
 ---------------------------------------------------------------
 Warning -- This program may not be used in any manner that
 competes with the business of Gaussian, Inc. or will provide
 assistance to any competitor of Gaussian, Inc.  The licensee
 of this program is prohibited from giving any competitor of
 Gaussian, Inc. access to this program.  By using this program,
 the user acknowledges that Gaussian, Inc. is engaged in the
 business of creating and licensing software in the field of
 computational chemistry and represents and warrants to the
 licensee that it is not a competitor of Gaussian, Inc. and that
 it will not use this program in any manner prohibited above.
 ---------------------------------------------------------------
  

 Cite this work as:
 Gaussian 03, Revision E.01,
 M. J. Frisch, G. W. Trucks, H. B. Schlegel, G. E. Scuseria, 
 M. A. Robb, J. R. Cheeseman, J. A. Montgomery, Jr., T. Vreven, 
 K. N. Kudin, J. C. Burant, J. M. Millam, S. S. Iyengar, J. Tomasi, 
 V. Barone, B. Mennucci, M. Cossi, G. Scalmani, N. Rega, 
 G. A. Petersson, H. Nakatsuji, M. Hada, M. Ehara, K. Toyota, 
 R. Fukuda, J. Hasegawa, M. Ishida, T. Nakajima, Y. Honda, O. Kitao, 
 H. Nakai, M. Klene, X. Li, J. E. Knox, H. P. Hratchian, J. B. Cross, 
 V. Bakken, C. Adamo, J. Jaramillo, R. Gomperts, R. E. Stratmann, 
 O. Yazyev, A. J. Austin, R. Cammi, C. Pomelli, J. W. Ochterski, 
 P. Y. Ayala, K. Morokuma, G. A. Voth, P. Salvador, J. J. Dannenberg, 
 V. G. Zakrzewski, S. Dapprich, A. D. Daniels, M. C. Strain, 
 O. Farkas, D. K. Malick, A. D. Rabuck, K. Raghavachari, 
 J. B. Foresman, J. V. Ortiz, Q. Cui, A. G. Baboul, S. Clifford, 
 J. Cioslowski, B. B. Stefanov, G. Liu, A. Liashenko, P. Piskorz, 
 I. Komaromi, R. L. Martin, D. J. Fox, T. Keith, M. A. Al-Laham, 
 C. Y. Peng, A. Nanayakkara, M. Challacombe, P. M. W. Gill, 
 B. Johnson, W. Chen, M. W. Wong, C. Gonzalez, and J. A. Pople, 
 Gaussian, Inc., Wallingford CT, 2004.
 
 ******************************************
 Gaussian 03:  IA32M-G03RevE.01 11-Sep-2007
                12-Mar-2012 
 ******************************************
 -------------------------------------------
 #p hf/sto-3g scf=tight formcheck=(mo,basis)
 -------------------------------------------
 1/38=1/1;
 2/17=6,18=5,40=1/2;
 3/6=3,11=9,16=1,25=1,30=1/1,2,3;
 4//1;
 5/5=2,32=2,38=5/2;
 6/7=2,8=2,9=2,10=2,28=1/1;
 99/5=1,9=1/99;
 Leave Link    1 at Mon Mar 12 16:20:19 2012, MaxMem=          0 cpu:       0.1
 (Enter /Volumes/m09nfshdd03/applications/g03/l101.exe)
 -------------------------
 H2O HF/STO-3G wfn for QMC
 -------------------------
 Symbolic Z-matrix:
 Charge =  0 Multiplicity = 1
 O
 H                    1    R1
 H                    1    R1       2    A1
       Variables:
  R1                    0.96                     
  A1                  109.5                      
 
                    Isotopes and Nuclear Properties:
 (Nuclear quadrupole moments (NQMom) in fm**2, nuclear magnetic moments (NMagM)
  in nuclear magnetons)

  Atom         1           2           3
 IAtWgt=          16           1           1
 AtmWgt=  15.9949146   1.0078250   1.0078250
 NucSpn=           0           1           1
 AtZEff=   0.0000000   0.0000000   0.0000000
 NQMom=    0.0000000   0.0000000   0.0000000
 NMagM=    0.0000000   2.7928460   2.7928460
 Leave Link  101 at Mon Mar 12 16:20:19 2012, MaxMem=    6291456 cpu:       0.0
 (Enter /Volumes/m09nfshdd03/applications/g03/l202.exe)
                          Input orientation:                          
 ---------------------------------------------------------------------
 Center     Atomic     Atomic              Coordinates (Angstroms)
 Number     Number      Type              X           Y           Z
 ---------------------------------------------------------------------
    1          8             0        0.000000    0.000000    0.000000
    2          1             0        0.000000    0.000000    0.960000
    3          1             0        0.904936    0.000000   -0.320455
 ---------------------------------------------------------------------
                    Distance matrix (angstroms):
                    1          2          3
     1  O    0.000000
     2  H    0.960000   0.000000
     3  H    0.960000   1.567952   0.000000
 Stoichiometry    H2O
 Framework group  C2V[C2(O),SGV(H2)]
 Deg. of freedom     2
 Full point group                 C2V
 Largest Abelian subgroup         C2V     NOp   4
 Largest concise Abelian subgroup C2      NOp   2
                         Standard orientation:                         
 ---------------------------------------------------------------------
 Center     Atomic     Atomic              Coordinates (Angstroms)
 Number     Number      Type              X           Y           Z
 ---------------------------------------------------------------------
    1          8             0        0.000000    0.000000    0.110812
    2          1             0        0.000000    0.783976   -0.443248
    3          1             0        0.000000   -0.783976   -0.443248
 ---------------------------------------------------------------------
 Rotational constants (GHZ):    919.6759604    407.9403277    282.5913753
 Leave Link  202 at Mon Mar 12 16:20:19 2012, MaxMem=    6291456 cpu:       0.0
 (Enter /Volumes/m09nfshdd03/applications/g03/l301.exe)
 Standard basis: STO-3G (5D, 7F)
 There are     4 symmetry adapted basis functions of A1  symmetry.
 There are     0 symmetry adapted basis functions of A2  symmetry.
 There are     1 symmetry adapted basis functions of B1  symmetry.
 There are     2 symmetry adapted basis functions of B2  symmetry.
 Integral buffers will be    262144 words long.
 Raffenetti 1 integral format.
 Two-electron integral symmetry is turned on.
     7 basis functions,    21 primitive gaussians,     7 cartesian basis functions
     5 alpha electrons        5 beta electrons
       nuclear repulsion energy         9.1571159803 Hartrees.
 IExCor=   0 DFT=F Ex=HF Corr=None ExCW=0 ScaHFX=  1.000000
 ScaDFX=  1.000000  1.000000  1.000000  1.000000
 IRadAn=      0 IRanWt=     -1 IRanGd=            0 ICorTp=0
 NAtoms=    3 NActive=    3 NUniq=    2 SFac= 1.69D+00 NAtFMM=   80 NAOKFM=F Big=F
 Leave Link  301 at Mon Mar 12 16:20:20 2012, MaxMem=    6291456 cpu:       0.0
 (Enter /Volumes/m09nfshdd03/applications/g03/l302.exe)
 NPDir=0 NMtPBC=     1 NCelOv=     1 NCel=       1 NClECP=     1 NCelD=      1
         NCelK=      1 NCelE2=     1 NClLst=     1 CellRange=     0.0.
 One-electron integrals computed using PRISM.
 One-electron integral symmetry used in STVInt
 NBasis=     7 RedAO= T  NBF=     4     0     1     2
 NBsUse=     7 1.00D-06 NBFU=     4     0     1     2
 Leave Link  302 at Mon Mar 12 16:20:20 2012, MaxMem=    6291456 cpu:       0.1
 (Enter /Volumes/m09nfshdd03/applications/g03/l303.exe)
 DipDrv:  MaxL=1.
 Leave Link  303 at Mon Mar 12 16:20:21 2012, MaxMem=    6291456 cpu:       0.0
 (Enter /Volumes/m09nfshdd03/applications/g03/l401.exe)
 Harris functional with IExCor=  205 diagonalized for initial guess.
 ExpMin= 1.69D-01 ExpMax= 1.31D+02 ExpMxC= 1.31D+02 IAcc=1 IRadAn=         1 AccDes= 1.00D-06
 HarFok:  IExCor= 205 AccDes= 1.00D-06 IRadAn=         1 IDoV=1
 ScaDFX=  1.000000  1.000000  1.000000  1.000000
 Harris En= -75.0419057688308    
 Initial guess orbital symmetries:
       Occupied  (A1) (A1) (B2) (A1) (B1)
       Virtual   (A1) (B2)
 The electronic state of the initial guess is 1-A1.
 Leave Link  401 at Mon Mar 12 16:20:21 2012, MaxMem=    6291456 cpu:       0.1
 (Enter /Volumes/m09nfshdd03/applications/g03/l502.exe)
 Closed shell SCF:
 Requested convergence on RMS density matrix=1.00D-08 within 128 cycles.
 Requested convergence on MAX density matrix=1.00D-06.
 Requested convergence on             energy=1.00D-06.
 No special actions if energy rises.
 Using DIIS extrapolation, IDIIS=  1040.
 Integral symmetry usage will be decided dynamically.
 Keep R1 integrals in memory in canonical form, NReq=      819409.
 IEnd=     18764 IEndB=     18764 NGot=   6291456 MDV=   6289375
 LenX=   6289375
 Symmetry not used in FoFDir.
 MinBra= 0 MaxBra= 1 Meth= 1.
 IRaf=       0 NMat=   1 IRICut=       1 DoRegI=T DoRafI=F ISym2E= 0 JSym2E=0.

 Cycle   1  Pass 1  IDiag  1:
 E= -74.9063411507308    
 DIIS: error= 7.83D-02 at cycle   1 NSaved=   1.
 NSaved= 1 IEnMin= 1 EnMin= -74.9063411507308     IErMin= 1 ErrMin= 7.83D-02
 ErrMax= 7.83D-02 EMaxC= 1.00D-01 BMatC= 4.02D-02 BMatP= 4.02D-02
 IDIUse=3 WtCom= 2.17D-01 WtEn= 7.83D-01
 Coeff-Com:  0.100D+01
 Coeff-En:   0.100D+01
 Coeff:      0.100D+01
 Gap=     0.879 Goal=   None    Shift=    0.000
 GapD=    0.879 DampG=2.000 DampE=0.500 DampFc=1.0000 IDamp=-1.
 RMSDP=4.07D-02 MaxDP=1.46D-01              OVMax= 0.00D+00

 Cycle   2  Pass 1  IDiag  1:
 E= -74.9603365264595     Delta-E=       -0.053995375729 Rises=F Damp=F
 DIIS: error= 6.27D-03 at cycle   2 NSaved=   2.
 NSaved= 2 IEnMin= 2 EnMin= -74.9603365264595     IErMin= 2 ErrMin= 6.27D-03
 ErrMax= 6.27D-03 EMaxC= 1.00D-01 BMatC= 3.46D-04 BMatP= 4.02D-02
 IDIUse=3 WtCom= 9.37D-01 WtEn= 6.27D-02
 Coeff-Com:  0.515D-01 0.948D+00
 Coeff-En:   0.000D+00 0.100D+01
 Coeff:      0.483D-01 0.952D+00
 Gap=     0.980 Goal=   None    Shift=    0.000
 RMSDP=2.75D-03 MaxDP=1.10D-02 DE=-5.40D-02 OVMax= 0.00D+00

 Cycle   3  Pass 1  IDiag  1:
 E= -74.9606870982515     Delta-E=       -0.000350571792 Rises=F Damp=F
 DIIS: error= 1.14D-03 at cycle   3 NSaved=   3.
 NSaved= 3 IEnMin= 3 EnMin= -74.9606870982515     IErMin= 3 ErrMin= 1.14D-03
 ErrMax= 1.14D-03 EMaxC= 1.00D-01 BMatC= 8.72D-06 BMatP= 3.46D-04
 IDIUse=3 WtCom= 9.89D-01 WtEn= 1.14D-02
 Coeff-Com: -0.105D-01-0.174D+00 0.118D+01
 Coeff-En:   0.000D+00 0.000D+00 0.100D+01
 Coeff:     -0.104D-01-0.172D+00 0.118D+01
 Gap=     0.979 Goal=   None    Shift=    0.000
 RMSDP=8.61D-04 MaxDP=3.73D-03 DE=-3.51D-04 OVMax= 0.00D+00

 Cycle   4  Pass 1  IDiag  1:
 E= -74.9607019408238     Delta-E=       -0.000014842572 Rises=F Damp=F
 DIIS: error= 1.67D-04 at cycle   4 NSaved=   4.
 NSaved= 4 IEnMin= 4 EnMin= -74.9607019408238     IErMin= 4 ErrMin= 1.67D-04
 ErrMax= 1.67D-04 EMaxC= 1.00D-01 BMatC= 2.28D-07 BMatP= 8.72D-06
 IDIUse=3 WtCom= 9.98D-01 WtEn= 1.67D-03
 Coeff-Com:  0.141D-02 0.129D-01-0.222D+00 0.121D+01
 Coeff-En:   0.000D+00 0.000D+00 0.000D+00 0.100D+01
 Coeff:      0.140D-02 0.129D-01-0.222D+00 0.121D+01
 Gap=     0.980 Goal=   None    Shift=    0.000
 RMSDP=1.87D-04 MaxDP=7.55D-04 DE=-1.48D-05 OVMax= 0.00D+00

 Cycle   5  Pass 1  IDiag  1:
 E= -74.9607024747303     Delta-E=       -0.000000533906 Rises=F Damp=F
 DIIS: error= 3.75D-05 at cycle   5 NSaved=   5.
 NSaved= 5 IEnMin= 5 EnMin= -74.9607024747303     IErMin= 5 ErrMin= 3.75D-05
 ErrMax= 3.75D-05 EMaxC= 1.00D-01 BMatC= 1.14D-08 BMatP= 2.28D-07
 IDIUse=1 WtCom= 1.00D+00 WtEn= 0.00D+00
 Coeff-Com: -0.634D-03-0.531D-02 0.126D+00-0.816D+00 0.170D+01
 Coeff:     -0.634D-03-0.531D-02 0.126D+00-0.816D+00 0.170D+01
 Gap=     0.980 Goal=   None    Shift=    0.000
 RMSDP=5.64D-05 MaxDP=1.72D-04 DE=-5.34D-07 OVMax= 0.00D+00

 Cycle   6  Pass 1  IDiag  1:
 E= -74.9607025104661     Delta-E=       -0.000000035736 Rises=F Damp=F
 DIIS: error= 2.27D-07 at cycle   6 NSaved=   6.
 NSaved= 6 IEnMin= 6 EnMin= -74.9607025104661     IErMin= 6 ErrMin= 2.27D-07
 ErrMax= 2.27D-07 EMaxC= 1.00D-01 BMatC= 4.27D-13 BMatP= 1.14D-08
 IDIUse=1 WtCom= 1.00D+00 WtEn= 0.00D+00
 Coeff-Com: -0.248D-07-0.161D-04 0.439D-03-0.335D-02 0.122D-01 0.991D+00
 Coeff:     -0.248D-07-0.161D-04 0.439D-03-0.335D-02 0.122D-01 0.991D+00
 Gap=     0.980 Goal=   None    Shift=    0.000
 RMSDP=2.78D-07 MaxDP=9.74D-07 DE=-3.57D-08 OVMax= 0.00D+00

 Cycle   7  Pass 1  IDiag  1:
 E= -74.9607025104671     Delta-E=       -0.000000000001 Rises=F Damp=F
 DIIS: error= 2.14D-10 at cycle   7 NSaved=   7.
 NSaved= 7 IEnMin= 7 EnMin= -74.9607025104671     IErMin= 7 ErrMin= 2.14D-10
 ErrMax= 2.14D-10 EMaxC= 1.00D-01 BMatC= 3.05D-19 BMatP= 4.27D-13
 IDIUse=1 WtCom= 1.00D+00 WtEn= 0.00D+00
 Coeff-Com:  0.737D-10 0.883D-08 0.433D-06-0.511D-05 0.173D-04 0.147D-02
 Coeff-Com:  0.999D+00
 Coeff:      0.737D-10 0.883D-08 0.433D-06-0.511D-05 0.173D-04 0.147D-02
 Coeff:      0.999D+00
 Gap=     0.980 Goal=   None    Shift=    0.000
 RMSDP=2.32D-10 MaxDP=7.39D-10 DE=-1.02D-12 OVMax= 0.00D+00

 SCF Done:  E(RHF) =  -74.9607025105     A.U. after    7 cycles
             Convg  =    0.2317D-09             -V/T =  2.0050
             S**2   =   0.0000
 KE= 7.458408242837D+01 PE=-1.969265220469D+02 EE= 3.822462112783D+01
 Leave Link  502 at Mon Mar 12 16:20:22 2012, MaxMem=    6291456 cpu:       0.0
 (Enter /Volumes/m09nfshdd03/applications/g03/l601.exe)
 Copying SCF densities to generalized density rwf, ISCF=0 IROHF=0.

 **********************************************************************

            Population analysis using the SCF density.

 **********************************************************************

 Orbital symmetries:
       Occupied  (A1) (A1) (B2) (A1) (B1)
       Virtual   (A1) (B2)
 The electronic state is 1-A1.
 Alpha  occ. eigenvalues --  -20.23449  -1.26075  -0.62397  -0.44044  -0.38694
 Alpha virt. eigenvalues --    0.59290   0.75419
          Condensed to atoms (all electrons):
              1          2          3
     1  O    7.839248   0.266646   0.266646
     2  H    0.266646   0.591575  -0.044492
     3  H    0.266646  -0.044492   0.591575
 Mulliken atomic charges:
              1
     1  O   -0.372541
     2  H    0.186270
     3  H    0.186270
 Sum of Mulliken charges=   0.00000
 Atomic charges with hydrogens summed into heavy atoms:
              1
     1  O    0.000000
     2  H    0.000000
     3  H    0.000000
 Sum of Mulliken charges=   0.00000
 Electronic spatial extent (au):  <R**2>=    17.8523
 Charge=     0.0000 electrons
 Dipole moment (field-independent basis, Debye):
    X=     0.0000    Y=     0.0000    Z=    -1.6888  Tot=     1.6888
 Quadrupole moment (field-independent basis, Debye-Ang):
   XX=    -6.0921   YY=    -4.1956   ZZ=    -5.4609
   XY=     0.0000   XZ=     0.0000   YZ=     0.0000
 Traceless Quadrupole moment (field-independent basis, Debye-Ang):
   XX=    -0.8426   YY=     1.0539   ZZ=    -0.2114
   XY=     0.0000   XZ=     0.0000   YZ=     0.0000
 Octapole moment (field-independent basis, Debye-Ang**2):
  XXX=     0.0000  YYY=     0.0000  ZZZ=    -0.1755  XYY=     0.0000
  XXY=     0.0000  XXZ=    -0.0059  XZZ=     0.0000  YZZ=     0.0000
  YYZ=    -0.5891  XYZ=     0.0000
 Hexadecapole moment (field-independent basis, Debye-Ang**3):
 XXXX=    -3.2294 YYYY=    -6.5600 ZZZZ=    -4.7118 XXXY=     0.0000
 XXXZ=     0.0000 YYYX=     0.0000 YYYZ=     0.0000 ZZZX=     0.0000
 ZZZY=     0.0000 XXYY=    -1.8140 XXZZ=    -1.3520 YYZZ=    -1.7003
 XXYZ=     0.0000 YYXZ=     0.0000 ZZXY=     0.0000
 N-N= 9.157115980271D+00 E-N=-1.969265220438D+02  KE= 7.458408242837D+01
 Symmetry A1   KE= 6.662745230499D+01
 Symmetry A2   KE= 0.000000000000D+00
 Symmetry B1   KE= 5.057462452019D+00
 Symmetry B2   KE= 2.899167671362D+00
 No NMR shielding tensors so no spin-rotation constants.
 Leave Link  601 at Mon Mar 12 16:20:22 2012, MaxMem=    6291456 cpu:       0.1
 (Enter /Volumes/m09nfshdd03/applications/g03/l9999.exe)
 1\1\GINC-MEIWAKU07SERVER01\SP\RHF\STO-3G\H2O1\MAEZONO\12-Mar-2012\0\\#
 p hf/sto-3g scf=tight formcheck=(mo,basis)\\H2O HF/STO-3G wfn for QMC\
 \0,1\O\H,1,0.96\H,1,0.96,2,109.50000006\\Version=IA32M-G03RevE.01\Stat
 e=1-A1\HF=-74.9607025\RMSD=2.317e-10\Thermal=0.\Dipole=0.5426034,0.,0.
 3834741\PG=C02V [C2(O1),SGV(H2)]\\@


 BOOKS ARE LIGHTHOUSES ERECTED IN THE GREAT SEA OF TIME.
     -- E.P.WHIPPLE
 Rotating derivatives, DoTrsp=T IDiff= 0 LEDeriv=    485 LFDPrp=       0 LDFDPr=       0.
 Job cpu time:  0 days  0 hours  0 minutes  1.2 seconds.
 File lengths (MBytes):  RWF=     11 Int=      0 D2E=      0 Chk=      7 Scr=      1
 Normal termination of Gaussian 03 at Mon Mar 12 16:20:23 2012.
