<UPF version="">
  <PP_INFO>
    From a Trail & Needs tabulated PP for CASINO
    Author: unknown
    Generation date: unknown
    Pseudopotential type: NC
    Element: Si
    Functional: HF

    Suggested minimum cutoff for wavefunctions:   0. Ry
    Suggested minimum cutoff for charge density:   0. Ry
    The Pseudo was generated with a Scalar-Relativistic Calculation
    L component and cutoff radius for Local Potential:  2   0.0000

    Valence configuration: 
    nl pn  l   occ       Rcut    Rcut US       E pseu
    3s  3  0  2.00      0.000      0.000     0.000000
    3p  3  1  2.00      0.000      0.000     0.000000

    Generation configuration: not available.
    Comment:
    Info: automatically converted from CASINO Tabulated format
  </PP_INFO>
  <!--                               -->
  <!-- END OF HUMAN READABLE SECTION -->
  <!--                               -->
  <PP_HEADER generated="From a Trail &amp; Needs tabulated PP for CASINO"
             author="unknown"
             date="unknown"
             comment="Info: automatically converted from CASINO Tabulated format"
             element="Si"
             pseudo_type="NC"
             relativistic="scalar"
             is_ultrasoft="F"
             is_paw="F"
             is_coulomb="F"
             has_so="F"
             has_wfc="F"
             has_gipaw="F"
             paw_as_gipaw="F"
             core_correction="F"
             functional="HF"
             z_valence="4.000000000000000E+000"
             total_psenergy="0.000000000000000E+000"
             wfc_cutoff="0.000000000000000E+000"
             rho_cutoff="0.000000000000000E+000"
             l_max="1"
             l_max_rho="0"
             l_local="2"
             mesh_size="1603"
             number_of_wfc="2"
             number_of_proj="2"/>
  <PP_MESH dx="1.333333333333333E-002" mesh="1603" xmin="-7.000000000000000E+000" rmax="1.012659312653460E+002"
zmesh="1.400000000000000E+001">
    <PP_R type="real" size="1603" columns="4">
 0.000000000000000E+000  7.190688538040590E-010  1.447789494583000E-009  2.186291474592220E-009 
 2.934706085017660E-009  3.693166379316760E-009  4.461807196872780E-009  5.240765186966560E-009 
 6.030178833070200E-009  6.830188477466540E-009  7.640936346199420E-009  8.462566574358569E-009 
 9.295225231704100E-009  1.013906034863480E-008  1.099422194250500E-008  1.186086204429480E-008 
 1.273913472563810E-008  1.362919612621380E-008  1.453120448150380E-008  1.544532015092480E-008 
 1.637170564633670E-008  1.731052566093410E-008  1.826194709852560E-008  1.922613910320580E-008 
 2.020327308942620E-008  2.119352277246900E-008  2.219706419933040E-008  2.321407578001820E-008 
 2.424473831926970E-008  2.528923504869550E-008  2.634775165935370E-008  2.742047633476320E-008 
 2.850759978435820E-008  2.960931527739290E-008  3.072581867730120E-008  3.185730847651680E-008 
 3.300398583176210E-008  3.416605459980900E-008  3.534372137372150E-008  3.653719551958310E-008 
 3.774668921371890E-008  3.897241748041530E-008  4.021459823014820E-008  4.147345229832240E-008 
 4.274920348453220E-008  4.404207859234860E-008  4.535230746964030E-008  4.668012304943620E-008 
 4.802576139133660E-008  4.938946172347970E-008  5.077146648507180E-008  5.217202136948820E-008 
 5.359137536795250E-008  5.502978081380270E-008  5.648749342735100E-008  5.796477236134570E-008 
 5.946188024704370E-008  6.097908324090090E-008  6.251665107189000E-008  6.407485708945280E-008 
 6.565397831209640E-008  6.725429547664151E-008  6.887609308813230E-008  7.051965947041550E-008 
 7.218528681739910E-008  7.387327124499811E-008  7.558391284377889E-008  7.731751573230900E-008 
 7.907438811122300E-008  8.085484231801579E-008  8.265919488256880E-008  8.448776658342370E-008 
 8.634088250480969E-008  8.821887209443819E-008  9.012206922207120E-008  9.205081223887720E-008 
 9.400544403758370E-008  9.598631211343610E-008  9.799376862597620E-008  1.000281704616490E-007 
 1.020898792972500E-007  1.041792616642240E-007  1.062966890138290E-007  1.084425377831700E-007 
 1.106171894621250E-007  1.128210306611630E-007  1.150544531800810E-007  1.173178540776530E-007 
 1.196116357422210E-007  1.219362059632340E-007  1.242919780037430E-007  1.266793706738710E-007 
 1.290988084052690E-007  1.315507213265720E-007  1.340355453398680E-007  1.365537221981950E-007 
 1.391056995840680E-007  1.416919311890800E-007  1.443128767945470E-007  1.469690023532600E-007 
 1.496607800723130E-007  1.523886884970560E-007  1.551532125961720E-007  1.579548438478930E-007 
 1.607940803273760E-007  1.636714267952500E-007  1.665873947873550E-007  1.695425027056810E-007 
 1.725372759105290E-007  1.755722468139130E-007  1.786479549742070E-007  1.817649471920760E-007 
 1.849237776076780E-007  1.881250077991840E-007  1.913692068826150E-007  1.946569516130200E-007 
 1.979888264870100E-007  2.013654238466700E-007  2.047873439848700E-007  2.082551952519790E-007 
 2.117695941640240E-007  2.153311655122880E-007  2.189405424743920E-007  2.225983667268580E-007 
 2.263052885591860E-007  2.300619669894650E-007  2.338690698815340E-007  2.377272740637100E-007 
 2.416372654491210E-007  2.455997391576450E-007  2.496153996394880E-007  2.536849608004240E-007 
 2.578091461287100E-007  2.619886888237110E-007  2.662243319262470E-007  2.705168284506930E-007 
 2.748669415188470E-007  2.792754444956010E-007  2.837431211264280E-007  2.882707656767170E-007 
 2.928591830729820E-007  2.975091890459540E-007  3.022216102756090E-007  3.069972845381330E-007 
 3.118370608548610E-007  3.167417996432190E-007  3.217123728696870E-007  3.267496642048190E-007 
 3.318545691803410E-007  3.370279953483620E-007  3.422708624427130E-007  3.475841025424650E-007 
 3.529686602376290E-007  3.584254927970890E-007  3.639555703387820E-007  3.695598760021690E-007 
 3.752394061230180E-007  3.809951704105310E-007  3.868281921268530E-007  3.927395082689830E-007 
 3.987301697531380E-007  4.048012416015840E-007  4.109538031319700E-007  4.171889481492190E-007 
 4.235077851399770E-007  4.299114374696840E-007  4.364010435822890E-007  4.429777572026350E-007 
 4.496427475415770E-007  4.563971995038400E-007  4.632423138986740E-007  4.701793076533330E-007 
 4.772094140294220E-007  4.843338828421450E-007  4.915539806824990E-007  4.988709911424511E-007 
 5.062862150431300E-007  5.138009706660950E-007  5.214165939876910E-007  5.291344389165670E-007 
 5.369558775343710E-007  5.448823003396790E-007  5.529151164951990E-007  5.610557540782940E-007 
 5.693056603348620E-007  5.776663019366350E-007  5.861391652419150E-007  5.947257565598290E-007 
 6.034276024181150E-007  6.122462498345100E-007  6.211832665917819E-007  6.302402415164470E-007 
 6.394187847612350E-007  6.487205280913420E-007  6.581471251745230E-007  6.677002518750890E-007 
 6.773816065518360E-007  6.871929103599830E-007  6.971359075571570E-007  7.072123658134930E-007 
 7.174240765258860E-007  7.277728551364700E-007  7.382605414553640E-007  7.488889999877589E-007 
 7.596601202653860E-007  7.705758171824410E-007  7.816380313360150E-007  7.928487293710910E-007 
 8.042099043301810E-007  8.157235760076440E-007  8.273917913087690E-007  8.392166246136749E-007 
 8.512001781460920E-007  8.633445823470990E-007  8.756519962538740E-007  8.881246078835250E-007 
 9.007646346220810E-007  9.135743236186970E-007  9.265559521851550E-007  9.397118282007240E-007 
 9.530442905224550E-007  9.665557094009889E-007  9.802484869019320E-007  9.941250573329050E-007 
 1.008187887676310E-006  1.022439478027910E-006  1.036882362041300E-006  1.051519107378360E-006 
 1.066352316165680E-006  1.081384625457230E-006  1.096618707703150E-006  1.112057271224840E-006 
 1.127703060696480E-006  1.143558857632970E-006  1.159627480884390E-006  1.175911787137220E-006 
 1.192414671422120E-006  1.209139067628650E-006  1.226087949026840E-006  1.243264328795810E-006 
 1.260671260559430E-006  1.278311838929180E-006  1.296189200054340E-006  1.314306522179540E-006 
 1.332667026209760E-006  1.351273976282970E-006  1.370130680350390E-006  1.389240490764640E-006 
 1.408606804875690E-006  1.428233065634820E-006  1.448122762206750E-006  1.468279430589930E-006 
 1.488706654245140E-006  1.509408064732620E-006  1.530387342357650E-006  1.551648216824840E-006 
 1.573194467901190E-006  1.595029926088090E-006  1.617158473302290E-006  1.639584043566010E-006 
 1.662310623706370E-006  1.685342254064130E-006  1.708683029212020E-006  1.732337098682650E-006 
 1.756308667706220E-006  1.780601997958150E-006  1.805221408316680E-006  1.830171275630710E-006 
 1.855456035497930E-006  1.881080183053340E-006  1.907048273768460E-006  1.933364924261130E-006 
 1.960034813116300E-006  1.987062681717800E-006  2.014453335091230E-006  2.042211642758200E-006 
 2.070342539602100E-006  2.098851026745330E-006  2.127742172438470E-006  2.157021112961290E-006 
 2.186693053535890E-006  2.216763269252070E-006  2.247237106005160E-006  2.278119981446400E-006 
 2.309417385946090E-006  2.341134883569680E-006  2.373278113066960E-006  2.405852788874500E-006 
 2.438864702131560E-006  2.472319721709670E-006  2.506223795255980E-006  2.540582950250630E-006 
 2.575403295078340E-006  2.610691020114350E-006  2.646452398824930E-006  2.682693788882710E-006 
 2.719421633296930E-006  2.756642461558870E-006  2.794362890802720E-006  2.832589626981890E-006 
 2.871329466061290E-006  2.910589295225450E-006  2.950376094102950E-006  2.990696936007260E-006 
 3.031558989194270E-006  3.072969518136600E-006  3.114935884815120E-006  3.157465550027770E-006 
 3.200566074715950E-006  3.244245121308660E-006  3.288510455084800E-006  3.333369945553590E-006 
 3.378831567853740E-006  3.424903404171160E-006  3.471593645175870E-006  3.518910591478130E-006 
 3.566862655104120E-006  3.615458360991460E-006  3.664706348504740E-006  3.714615372971430E-006 
 3.765194307238460E-006  3.816452143249570E-006  3.868397993643940E-006  3.921041093376230E-006 
 3.974390801358370E-006  4.028456602123420E-006  4.083248107511670E-006  4.138775058379510E-006 
 4.195047326331110E-006  4.252074915473420E-006  4.309867964194710E-006  4.368436746966980E-006 
 4.427791676172510E-006  4.487943303955070E-006  4.548902324095770E-006  4.610679573914320E-006 
 4.673286036195610E-006  4.736732841142260E-006  4.801031268353390E-006  4.866192748829820E-006 
 4.932228867006380E-006  4.999151362811340E-006  5.066972133753540E-006  5.135703237037550E-006 
 5.205356891707200E-006  5.275945480817880E-006  5.347481553638000E-006  5.419977827880050E-006 
 5.493447191961480E-006  5.567902707296070E-006  5.643357610616000E-006  5.719825316325020E-006 
 5.797319418883310E-006  5.875853695224340E-006  5.955442107204060E-006  6.036098804083100E-006 
 6.117838125042240E-006  6.200674601731600E-006  6.284622960854070E-006  6.369698126783520E-006 
 6.455915224217930E-006  6.543289580868380E-006  6.631836730183950E-006  6.721572414113280E-006 
 6.812512585903200E-006  6.904673412934860E-006  6.998071279598030E-006  7.092722790203890E-006 
 7.188644771936930E-006  7.285854277846540E-006  7.384368589878700E-006  7.484205221948330E-006 
 7.585381923052970E-006  7.687916680428190E-006  7.791827722745349E-006  7.897133523352300E-006 
 8.003852803557629E-006  8.112004535958900E-006  8.221607947815570E-006  8.332682524467331E-006 
 8.445248012798130E-006  8.559324424746799E-006  8.674932040864820E-006  8.792091413921751E-006 
 8.910823372559130E-006  9.031149024993460E-006  9.153089762768729E-006  9.276667264559489E-006 
 9.401903500024871E-006  9.528820733714339E-006  9.657441529025941E-006  9.787788752217601E-006 
 9.919885576472289E-006  1.005375548601780E-005  1.018942228030170E-005  1.032691007822260E-005 
 1.046624332241780E-005  1.060744678360860E-005  1.075054556500470E-005  1.089556510676610E-005 
 1.104253119052680E-005  1.119146994397760E-005  1.134240784551140E-005  1.149537172893040E-005 
 1.165038878821680E-005  1.180748658236710E-005  1.196669304029200E-005  1.212803646578080E-005 
 1.229154554253440E-005  1.245724933926350E-005  1.262517731485750E-005  1.279535932362080E-005 
 1.296782562058110E-005  1.314260686686760E-005  1.331973413516210E-005  1.349923891522350E-005 
 1.368115311948520E-005  1.386550908872950E-005  1.405233959783630E-005  1.424167786161060E-005 
 1.443355754068670E-005  1.462801274751300E-005  1.482507805241610E-005  1.502478848974710E-005 
 1.522717956410970E-005  1.543228725667240E-005  1.564014803156520E-005  1.585079884236210E-005 
 1.606427713865110E-005  1.628062087269150E-005  1.649986850616130E-005  1.672205901699520E-005 
 1.694723190631340E-005  1.717542720544500E-005  1.740668548304410E-005  1.764104785230260E-005 
 1.787855597825880E-005  1.811925208520520E-005  1.836317896419460E-005  1.861037998064810E-005 
 1.886089908206400E-005  1.911478080583140E-005  1.937207028714740E-005  1.963281326704210E-005 
 1.989705610050970E-005  2.016484576474990E-005  2.043622986751930E-005  2.071125665559550E-005 
 2.098997502335400E-005  2.127243452146100E-005  2.155868536568220E-005  2.184877844581060E-005 
 2.214276533471330E-005  2.244069829750040E-005  2.274263030081670E-005  2.304861502225790E-005 
 2.335870685991380E-005  2.367296094203890E-005  2.399143313685320E-005  2.431418006247450E-005 
 2.464125909698420E-005  2.497272838862760E-005  2.530864686615180E-005  2.564907424928200E-005 
 2.599407105933840E-005  2.634369862999580E-005  2.669801911818780E-005  2.705709551515650E-005 
 2.742099165765150E-005  2.778977223927880E-005  2.816350282200200E-005  2.854224984779790E-005 
 2.892608065046850E-005  2.931506346761200E-005  2.970926745275370E-005  3.010876268764020E-005 
 3.051362019469890E-005  3.092391194966390E-005  3.133971089437230E-005  3.176109094973160E-005 
 3.218812702886150E-005  3.262089505041180E-005  3.305947195205960E-005  3.350393570418690E-005 
 3.395436532374240E-005  3.441084088828930E-005  3.487344355024130E-005  3.534225555129010E-005 
 3.581736023702600E-005  3.629884207175580E-005  3.678678665351810E-005  3.728128072930130E-005 
 3.778241221046600E-005  3.829027018837290E-005  3.880494495022250E-005  3.932652799510560E-005 
 3.985511205027080E-005  4.039079108760870E-005  4.093366034035910E-005  4.148381632004120E-005 
 4.204135683361160E-005  4.260638100085200E-005  4.317898927199150E-005  4.375928344556430E-005 
 4.434736668650730E-005  4.494334354450090E-005  4.554731997255650E-005  4.615940334585190E-005 
 4.677970248082110E-005  4.740832765449960E-005  4.804539062412950E-005  4.869100464702760E-005 
 4.934528450072070E-005  5.000834650335050E-005  5.068030853435250E-005  5.136129005541340E-005 
 5.205141213170800E-005  5.275079745342320E-005  5.345957035756920E-005  5.417785685008470E-005 
 5.490578462823780E-005  5.564348310332870E-005  5.639108342369560E-005  5.714871849803130E-005 
 5.791652301901120E-005  5.869463348723880E-005  5.948318823551340E-005  6.028232745342290E-005 
 6.109219321226600E-005  6.191292949031090E-005  6.274468219839069E-005  6.358759920584420E-005 
 6.444183036680380E-005  6.530752754683700E-005  6.618484464994459E-005  6.707393764592220E-005 
 6.797496459808870E-005  6.888808569138630E-005  6.981346326085890E-005  7.075126182051149E-005 
 7.170164809255800E-005  7.266479103706100E-005  7.364086188196950E-005  7.463003415355999E-005 
 7.563248370728620E-005  7.664838875904200E-005  7.767792991684581E-005  7.872129021294830E-005 
 7.977865513637230E-005  8.085021266588890E-005  8.193615330343700E-005  8.303667010798980E-005 
 8.415195872987770E-005  8.528221744557100E-005  8.642764719292930E-005  8.758845160692449E-005 
 8.876483705584299E-005  8.995701267797390E-005  9.116519041879020E-005  9.238958506862770E-005 
 9.363041430087110E-005  9.488789871065210E-005  9.616226185406650E-005  9.745373028791830E-005 
 9.876253360999740E-005  1.000889044998970E-004  1.014330787603790E-004  1.027952953592980E-004 
 1.041757964720800E-004  1.055748275247820E-004  1.069926372377200E-004  1.084294776696890E-004 
 1.098856042627710E-004  1.113612758877520E-004  1.128567548901400E-004  1.143723071368080E-004 
 1.159082020632580E-004  1.174647127215220E-004  1.190421158287050E-004  1.206406918161820E-004 
 1.222607248794480E-004  1.239025030286490E-004  1.255663181397800E-004  1.272524660065750E-004 
 1.289612463930980E-004  1.306929630870270E-004  1.324479239536690E-004  1.342264409906900E-004 
 1.360288303835800E-004  1.378554125618670E-004  1.397065122560830E-004  1.415824585554940E-004 
 1.434835849666030E-004  1.454102294724470E-004  1.473627345926800E-004  1.493414474444640E-004 
 1.513467198041850E-004  1.533789081699890E-004  1.554383738251590E-004  1.575254829023470E-004 
 1.596406064486640E-004  1.617841204916440E-004  1.639564061060960E-004  1.661578494818510E-004 
 1.683888419924170E-004  1.706497802645620E-004  1.729410662488220E-004  1.752631072909620E-004 
 1.776163162043940E-004  1.800011113435680E-004  1.824179166783450E-004  1.848671618693700E-004 
 1.873492823444640E-004  1.898647193760250E-004  1.924139201594840E-004  1.949973378928050E-004 
 1.976154318570560E-004  2.002686674980590E-004  2.029575165091390E-004  2.056824569149800E-004 
 2.084439731566070E-004  2.112425561775160E-004  2.140787035109470E-004  2.169529193683400E-004 
 2.198657147289740E-004  2.228176074308060E-004  2.258091222625360E-004  2.288407910569010E-004 
 2.319131527852270E-004  2.350267536532480E-004  2.381821471982060E-004  2.413798943872650E-004 
 2.446205637172360E-004  2.479047313156450E-004  2.512329810431610E-004  2.546059045973890E-004 
 2.580241016180670E-004  2.614881797936680E-004  2.649987549694360E-004  2.685564512568710E-004 
 2.721619011446810E-004  2.758157456112320E-004  2.795186342384980E-004  2.832712253275420E-004 
 2.870741860155530E-004  2.909281923944450E-004  2.948339296310600E-004  2.987920920889710E-004 
 3.028033834519290E-004  3.068685168489630E-004  3.109882149811600E-004  3.151632102501510E-004 
 3.193942448883130E-004  3.236820710907250E-004  3.280274511488930E-004  3.324311575862730E-004 
 3.368939732956080E-004  3.414166916781100E-004  3.460001167845150E-004  3.506450634580260E-004 
 3.553523574791720E-004  3.601228357126230E-004  3.649573462559620E-004  3.698567485904620E-004 
 3.748219137338870E-004  3.798537243953410E-004  3.849530751321930E-004  3.901208725091150E-004 
 3.953580352592520E-004  4.006654944475520E-004  4.060441936362960E-004  4.114950890528380E-004 
 4.170191497596080E-004  4.226173578263920E-004  4.282907085049240E-004  4.340402104058230E-004 
 4.398668856779030E-004  4.457717701898920E-004  4.517559137145870E-004  4.578203801154880E-004 
 4.639662475359270E-004  4.701946085907430E-004  4.765065705605290E-004  4.829032555884800E-004 
 4.893858008798930E-004  4.959553589043390E-004  5.026130976005450E-004  5.093602005840380E-004 
 5.161978673575630E-004  5.231273135243330E-004  5.301497710041380E-004  5.372664882523600E-004 
 5.444787304819190E-004  5.517877798882080E-004  5.591949358770390E-004  5.667015152956500E-004 
 5.743088526668200E-004  5.820183004261190E-004  5.898312291623390E-004  5.977490278611690E-004 
 6.057731041521211E-004  6.139048845587770E-004  6.221458147524060E-004  6.304973598089690E-004 
 6.389610044695839E-004  6.475382534044800E-004  6.562306314805050E-004  6.650396840322080E-004 
 6.739669771365790E-004  6.830140978914580E-004  6.921826546976980E-004  7.014742775451011E-004 
 7.108906183021990E-004  7.204333510099289E-004  7.301041721792380E-004  7.399048010926920E-004 
 7.498369801101350E-004  7.599024749784390E-004  7.701030751454250E-004  7.804405940779870E-004 
 7.909168695844960E-004  8.015337641415220E-004  8.122931652249510E-004  8.231969856455340E-004 
 8.342471638889520E-004  8.454456644604420E-004  8.567944782340440E-004  8.682956228065381E-004 
 8.799511428561450E-004  8.917631105060120E-004  9.037336256926110E-004  9.158648165390561E-004 
 9.281588397334480E-004  9.406178809122940E-004  9.532441550490580E-004  9.660399068479550E-004 
 9.790074111430040E-004  9.921489733024549E-004  1.005466929638640E-003  1.018963647823310E-003 
 1.032641527308580E-003  1.046502999753510E-003  1.060550529456350E-003  1.074786613792730E-003 
 1.089213783659580E-003  1.103834603925090E-003  1.118651673884700E-003  1.133667627723220E-003 
 1.148885134983100E-003  1.164306901039030E-003  1.179935667578930E-003  1.195774213091360E-003 
 1.211825353359440E-003  1.228091941961510E-003  1.244576870778380E-003  1.261283070507480E-003 
 1.278213511183870E-003  1.295371202708260E-003  1.312759195382120E-003  1.330380580449930E-003 
 1.348238490648790E-003  1.366336100765310E-003  1.384676628200080E-003  1.403263333539620E-003 
 1.422099521136030E-003  1.441188539694510E-003  1.460533782868630E-003  1.480138689863690E-003 
 1.500006746048110E-003  1.520141483573110E-003  1.540546482000610E-003  1.561225368939620E-003 
 1.582181820691170E-003  1.603419562901890E-003  1.624942371226320E-003  1.646754071998180E-003 
 1.668858542910610E-003  1.691259713705550E-003  1.713961566872370E-003  1.736968138355850E-003 
 1.760283518273750E-003  1.783911851643900E-003  1.807857339121140E-003  1.832124237744080E-003 
 1.856716861691940E-003  1.881639583051530E-003  1.906896832594520E-003  1.932493100565120E-003 
 1.958432937478390E-003  1.984720954929190E-003  2.011361826412110E-003  2.038360288152220E-003 
 2.065721139947180E-003  2.093449246020480E-003  2.121549535886210E-003  2.150027005225490E-003 
 2.178886716774520E-003  2.208133801224700E-003  2.237773458134760E-003  2.267810956855070E-003 
 2.298251637464540E-003  2.329100911719890E-003  2.360364264017780E-003  2.392047252369870E-003 
 2.424155509390850E-003  2.456694743299870E-003  2.489670738935330E-003  2.523089358783310E-003 
 2.556956544019780E-003  2.591278315566890E-003  2.626060775163300E-003  2.661310106449000E-003 
 2.697032576064600E-003  2.733234534765450E-003  2.769922418550680E-003  2.807102749807360E-003 
 2.844782138470080E-003  2.882967283196060E-003  2.921664972556060E-003  2.960882086241190E-003 
 3.000625596286090E-003  3.040902568308330E-003  3.081720162764550E-003  3.123085636223500E-003 
 3.165006342656090E-003  3.207489734742730E-003  3.250543365198380E-003  3.294174888115170E-003 
 3.338392060323200E-003  3.383202742769540E-003  3.428614901915760E-003  3.474636611154180E-003 
 3.521276052243250E-003  3.568541516761970E-003  3.616441407584080E-003  3.664984240371890E-003 
 3.714178645090170E-003  3.764033367540470E-003  3.814557270915840E-003  3.865759337376620E-003 
 3.917648669647260E-003  3.970234492634600E-003  4.023526155067880E-003  4.077533131160810E-003 
 4.132265022295810E-003  4.187731558731010E-003  4.243942601330070E-003  4.300908143315310E-003 
 4.358638312044180E-003  4.417143370809880E-003  4.476433720665820E-003  4.536519902274790E-003 
 4.597412597782890E-003  4.659122632718580E-003  4.721660977917270E-003  4.785038751471720E-003 
 4.849267220708580E-003  4.914357804191550E-003  4.980322073751340E-003  5.047171756542950E-003 
 5.114918737130480E-003  5.183575059600040E-003  5.253152929700890E-003  5.323664717015410E-003 
 5.395122957158150E-003  5.467540354004460E-003  5.540929781948970E-003  5.615304288194370E-003 
 5.690677095070990E-003  5.767061602387450E-003  5.844471389812900E-003  5.922920219291200E-003 
 6.002422037487550E-003  6.082990978267900E-003  6.164641365211700E-003  6.247387714158350E-003 
 6.331244735787810E-003  6.416227338235880E-003  6.502350629744630E-003  6.589629921348260E-003 
 6.678080729595140E-003  6.767718779306360E-003  6.858560006371290E-003  6.950620560580650E-003 
 7.043916808497680E-003  7.138465336367720E-003  7.234282953066960E-003  7.331386693090730E-003 
 7.429793819581900E-003  7.529521827399890E-003  7.630588446231010E-003  7.733011643740320E-003 
 7.836809628766039E-003  7.942000854556670E-003  8.048604022051591E-003  8.156638083205820E-003 
 8.266122244359200E-003  8.377075969650960E-003  8.489518984480049E-003  8.603471279011900E-003 
 8.718953111732340E-003  8.835985013049120E-003  8.954587788941820E-003  9.074782524660751E-003 
 9.196590588475479E-003  9.320033635473729E-003  9.445133611411170E-003  9.571912756613061E-003 
 9.700393609927980E-003  9.830599012734901E-003  9.962552113003920E-003  1.009627636941150E-002 
 1.023179555551100E-002  1.036913376395910E-002  1.050831541079900E-002  1.064936523980110E-002 
 1.079230832686220E-002  1.093717008446300E-002  1.108397626618640E-002  1.123275297129580E-002 
 1.138352664937520E-002  1.153632410503100E-002  1.169117250265780E-002  1.184809937126740E-002 
 1.200713260938310E-002  1.216830048999950E-002  1.233163166560860E-002  1.249715517329420E-002 
 1.266490043989340E-002  1.283489728722890E-002  1.300717593741020E-002  1.318176701820650E-002 
 1.335870156849200E-002  1.353801104376400E-002  1.371972732173460E-002  1.390388270799870E-002 
 1.409050994177650E-002  1.427964220173460E-002  1.447131311188380E-002  1.466555674755750E-002 
 1.486240764146910E-002  1.506190078985170E-002  1.526407165867920E-002  1.546895618997180E-002 
 1.567659080818600E-002  1.588701242668940E-002  1.610025845432420E-002  1.631636680205680E-002 
 1.653537588971820E-002  1.675732465283420E-002  1.698225254954720E-002  1.721019956763120E-002 
 1.744120623160100E-002  1.767531360991630E-002  1.791256332228320E-002  1.815299754705320E-002 
 1.839665902872170E-002  1.864359108552730E-002  1.889383761715240E-002  1.914744311252870E-002 
 1.940445265774540E-002  1.966491194406520E-002  1.992886727604720E-002  2.019636557977900E-002 
 2.046745441121910E-002  2.074218196465150E-002  2.102059708125380E-002  2.130274925777990E-002 
 2.158868865535980E-002  2.187846610841750E-002  2.217213313370760E-002  2.246974193947500E-002 
 2.277134543473540E-002  2.307699723868240E-002  2.338675169021960E-002  2.370066385762070E-002 
 2.401878954832010E-002  2.434118531883410E-002  2.466790848481520E-002  2.499901713124260E-002 
 2.533457012274760E-002  2.567462711407900E-002  2.601924856070880E-002  2.636849572957970E-002 
 2.672243070999690E-002  2.708111642466710E-002  2.744461664088400E-002  2.781299598186580E-002 
 2.818631993824340E-002  2.856465487970330E-002  2.894806806678700E-002  2.933662766284890E-002 
 2.973040274617380E-002  3.012946332225800E-002  3.053388033625510E-002  3.094372568558810E-002 
 3.135907223273200E-002  3.177999381816690E-002  3.220656527350530E-002  3.263886243479630E-002 
 3.307696215600700E-002  3.352094232268630E-002  3.397088186581070E-002  3.442686077581750E-002 
 3.488896011682490E-002  3.535726204104410E-002  3.583184980338370E-002  3.631280777625140E-002 
 3.680022146455370E-002  3.729417752089660E-002  3.779476376099110E-002  3.830206917926490E-002 
 3.881618396468420E-002  3.933719951678700E-002  3.986520846193270E-002  4.040030466976870E-002 
 4.094258326991900E-002  4.149214066889650E-002  4.204907456724170E-002  4.261348397689220E-002 
 4.318546923878520E-002  4.376513204069580E-002  4.435257543531560E-002  4.494790385857300E-002 
 4.555122314820010E-002  4.616264056254860E-002  4.678226479965790E-002  4.741020601657990E-002 
 4.804657584896260E-002  4.869148743089670E-002  4.934505541502860E-002  5.000739599294360E-002 
 5.067862691582210E-002  5.135886751537370E-002  5.204823872505240E-002  5.274686310155540E-002 
 5.345486484661190E-002  5.417236982906350E-002  5.489950560724130E-002  5.563640145164300E-002 
 5.638318836791540E-002  5.713999912014360E-002  5.790696825445460E-002  5.868423212293680E-002 
 5.947192890788060E-002  6.027019864634440E-002  6.107918325505110E-002  6.189902655561730E-002 
 6.272987430012231E-002  6.357187419702000E-002  6.442517593739870E-002  6.528993122159291E-002 
 6.616629378615289E-002  6.705441943117620E-002  6.795446604800540E-002  6.886659364729840E-002 
 6.979096438747510E-002  7.072774260354631E-002  7.167709483632870E-002  7.263918986205289E-002 
 7.361419872236850E-002  7.460229475475200E-002  7.560365362332250E-002  7.661845335007210E-002 
 7.764687434651360E-002  7.868909944575500E-002  7.974531393500350E-002  8.081570558850540E-002 
 8.190046470092950E-002  8.299978412119741E-002  8.411385928676790E-002  8.524288825838240E-002 
 8.638707175527610E-002  8.754661319086200E-002  8.872171870889360E-002  8.991259722011370E-002 
 9.111946043939401E-002  9.234252292337440E-002  9.358200210860650E-002  9.483811835020980E-002 
 9.611109496104710E-002  9.740115825142380E-002  9.870853756932280E-002  1.000334653411770E-001 
 1.013761771131910E-001  1.027369115932170E-001  1.041159106931890E-001  1.055134195721370E-001 
 1.069296866797620E-001  1.083649638006160E-001  1.098195060988530E-001  1.112935721636040E-001 
 1.127874240549400E-001  1.143013273504650E-001  1.158355511925290E-001  1.173903683360790E-001 
 1.189660551971460E-001  1.205628919019900E-001  1.221811623368950E-001  1.238211541986480E-001 
 1.254831590456750E-001  1.271674723498820E-001  1.288743935491810E-001  1.306042261007260E-001 
 1.323572775348610E-001  1.341338595097890E-001  1.359342878669860E-001  1.377588826873470E-001 
 1.396079683480880E-001  1.414818735804200E-001  1.433809315279870E-001  1.453054798060920E-001 
 1.472558605617190E-001  1.492324205343620E-001  1.512355111176660E-001  1.532654884219000E-001 
 1.553227133372640E-001  1.574075515980510E-001  1.595203738476640E-001  1.616615557045120E-001 
 1.638314778287870E-001  1.660305259901380E-001  1.682590911362510E-001  1.705175694623550E-001 
 1.728063624816560E-001  1.751258770967200E-001  1.774765256718090E-001  1.798587261061940E-001 
 1.822729019084500E-001  1.847194822717420E-001  1.871989021501370E-001  1.897116023359180E-001 
 1.922580295379610E-001  1.948386364611400E-001  1.974538818868170E-001  2.001042307544000E-001 
 2.027901542440000E-001  2.055121298602020E-001  2.082706415169500E-001  2.110661796235830E-001 
 2.138992411720150E-001  2.167703298250940E-001  2.196799560061430E-001  2.226286369897000E-001 
 2.256168969934870E-001  2.286452672715940E-001  2.317142862089380E-001  2.348244994169670E-001 
 2.379764598306650E-001  2.411707278068530E-001  2.444078712238050E-001  2.476884655822100E-001 