H2O HF/STO-3G wfn for QMC                                               
SP        RHF                                                         STO-3G              
Number of atoms                            I                3
Charge                                     I                0
Multiplicity                               I                1
Number of electrons                        I               10
Number of alpha electrons                  I                5
Number of beta electrons                   I                5
Number of basis functions                  I                7
Number of independant functions            I                7
Number of point charges in /Mol/           I                0
Number of translation vectors              I                0
Number of symbols in /Mol/                 I                0
Info1-9                                    I   N=           9
          13          12           0           0           0         110
           1           1           2
Num ILSW                                   I              100
ILSW                                       I   N=         100
           0           0           0           0           2           0
           0           0         129           1           0     1000000
           0           0          -1           0           0           0
           0     1000000           0           0           0           0
           1           0           0           0     1000000           0
           0           0      100000           0          -1           0
           0           0           0           0           0           0
           0           0           0           1           0           0
           0           0           1     1000000     1000000           0
           0           0           0           0           0           0
           0           0           0           0           0           0
           0           0           0           0           0           0
           0           0           0           0           0           0
           0           0           0           0           0           0
           0           0           0           0           0           0
           0           0           0           0           0           0
           0           0           0           0
Number of contracted shells                I                4
Highest angular momentum                   I                1
Largest degree of contraction              I                3
Number of primitive shells                 I               12
Pure/Cartesian d shells                    I                0
Pure/Cartesian f shells                    I                0
Virial Ratio                               R      2.005049604015188E+00
SCF Energy                                 R     -7.496070251046713E+01
Total Energy                               R     -7.496070251046713E+01
RMS Density                                R      2.317162488642456E-10
Atomic numbers                             I   N=           3
           8           1           1
Nuclear charges                            R   N=           3
  8.00000000E+00  1.00000000E+00  1.00000000E+00
Current cartesian coordinates              R   N=           9
 -7.09803819E-33 -5.81213130E-18  2.09404099E-01  7.30435763E-32  1.48149973E+00
 -8.37616395E-01 -1.81425399E-16 -1.48149973E+00 -8.37616395E-01
Atom Types                                 C   N=           3
                                    
Int Atom Types                             I   N=           3
           0           0           0
Force Field                                I                0
MM charges                                 R   N=           3
  0.00000000E+00  0.00000000E+00  0.00000000E+00
Integer atomic weights                     I   N=           3
          16           1           1
Real atomic weights                        R   N=           3
  1.59949146E+01  1.00782504E+00  1.00782504E+00
Atom residue info                          I   N=           3
           0           0           0
Atom fragment info                         I   N=           3
           0           0           0
Atom residue num                           I   N=           3
           0           0           0
Nuclear spins                              I   N=           3
           0           1           1
Nuclear ZEff                               R   N=           3
 -5.60000000E+00 -1.00000000E+00 -1.00000000E+00
Nuclear QMom                               R   N=           3
  0.00000000E+00  0.00000000E+00  0.00000000E+00
Nuclear GFac                               R   N=           3
  0.00000000E+00  2.79284600E+00  2.79284600E+00
MicOpt                                     I   N=           3
          -1          -1          -1
Constraint Structure                       R   N=           9
 -7.09803819E-33 -5.81213130E-18  2.09404099E-01  7.30435763E-32  1.48149973E+00
 -8.37616395E-01 -1.81425399E-16 -1.48149973E+00 -8.37616395E-01
ONIOM Charges                              I   N=          16
           0           0           0           0           0           0
           0           0           0           0           0           0
           0           0           0           0
ONIOM Multiplicities                       I   N=          16
           1           0           0           0           0           0
           0           0           0           0           0           0
           0           0           0           0
Atom Layers                                I   N=           3
           1           1           1
Atom Modifiers                             I   N=           3
           0           0           0
Atom Modified Types                        C   N=           3
                                    
Int Atom Modified Types                    I   N=           3
           0           0           0
Link Atoms                                 I   N=           3
           0           0           0
Atom Modified MM Charges                   R   N=           3
  0.00000000E+00  0.00000000E+00  0.00000000E+00
Link Distances                             R   N=          12
  0.00000000E+00  0.00000000E+00  0.00000000E+00  0.00000000E+00  0.00000000E+00
  0.00000000E+00  0.00000000E+00  0.00000000E+00  0.00000000E+00  0.00000000E+00
  0.00000000E+00  0.00000000E+00
MxBond                                     I                2
NBond                                      I   N=           3
           2           1           1
IBond                                      I   N=           6
           2           3           1           0           1           0
RBond                                      R   N=           6
  1.00000000E+00  1.00000000E+00  1.00000000E+00  0.00000000E+00  1.00000000E+00
  0.00000000E+00
Shell types                                I   N=           4
           0          -1           0           0
Number of primitives per shell             I   N=           4
           3           3           3           3
Shell to atom map                          I   N=           4
           1           1           2           3
Primitive exponents                        R   N=          12
  1.30709321E+02  2.38088661E+01  6.44360831E+00  5.03315132E+00  1.16959612E+00
  3.80388960E-01  3.42525091E+00  6.23913730E-01  1.68855404E-01  3.42525091E+00
  6.23913730E-01  1.68855404E-01
Contraction coefficients                   R   N=          12
  1.54328967E-01  5.35328142E-01  4.44634542E-01 -9.99672292E-02  3.99512826E-01
  7.00115469E-01  1.54328967E-01  5.35328142E-01  4.44634542E-01  1.54328967E-01
  5.35328142E-01  4.44634542E-01
P(S=P) Contraction coefficients            R   N=          12
  0.00000000E+00  0.00000000E+00  0.00000000E+00  1.55916275E-01  6.07683719E-01
  3.91957393E-01  0.00000000E+00  0.00000000E+00  0.00000000E+00  0.00000000E+00
  0.00000000E+00  0.00000000E+00
Coordinates of each shell                  R   N=          12
 -7.09803819E-33 -5.81213130E-18  2.09404099E-01 -7.09803819E-33 -5.81213130E-18
  2.09404099E-01  7.30435763E-32  1.48149973E+00 -8.37616395E-01 -1.81425399E-16
 -1.48149973E+00 -8.37616395E-01
Alpha Orbital Energies                     R   N=           7
 -2.02344901E+01 -1.26075303E+00 -6.23970691E-01 -4.40442648E-01 -3.86942243E-01
  5.92900016E-01  7.54193707E-01
Alpha MO coefficients                      R   N=          49
  9.94124105E-01  2.65649755E-02  0.00000000E+00  0.00000000E+00 -4.15175203E-03
 -5.97124033E-03 -5.97124033E-03 -2.33254804E-01  8.35395107E-01  0.00000000E+00
  0.00000000E+00 -1.23245044E-01  1.59551858E-01  1.59551858E-01  0.00000000E+00
  0.00000000E+00  0.00000000E+00  5.99694013E-01  0.00000000E+00  4.42357416E-01
 -4.42357416E-01 -9.97848614E-02  5.20569033E-01  0.00000000E+00  0.00000000E+00
  7.91764611E-01 -2.73157366E-01 -2.73157366E-01  0.00000000E+00  0.00000000E+00
  1.00000000E+00  0.00000000E+00  0.00000000E+00  0.00000000E+00  0.00000000E+00
 -1.34211626E-01  8.90880283E-01  0.00000000E+00  0.00000000E+00 -7.14010279E-01
 -8.00031286E-01 -8.00031286E-01  0.00000000E+00  0.00000000E+00  0.00000000E+00
  1.00304145E+00  0.00000000E+00 -8.33275938E-01  8.33275938E-01
Dipole Moment                              R   N=           3
  1.90800971E-17 -5.42603355E-01  3.83474137E-01
QEq coupling tensors                       R   N=          18
  2.62744354E+00  1.22226304E-16 -2.45941346E+00  1.08995971E-16  1.16850973E-14
 -1.68030081E-01  2.78440904E-01  3.41643688E-18 -2.79367586E-01  2.73117635E-18
  3.28933351E-01  9.26681380E-04  2.78440904E-01 -1.30612807E-16 -2.79367586E-01
 -8.77092367E-17 -3.28933351E-01  9.26681380E-04
Mulliken Charges                           R   N=           3
 -3.72540601E-01  1.86270300E-01  1.86270300E-01
