 Entering Gaussian System, Link 0=g16
 Initial command:
 /opt/Gaussian/c.01/g16/l1.exe "/home/s2420025/Volumes/storage/hdd4/reza/04CH4_CASINO/01gwfn/04generateGwfnFrom03/Gau-801876.inp" -scrdir="/home/s2420025/Volumes/storage/hdd4/reza/04CH4_CASINO/01gwfn/04generateGwfnFrom03/"
 Entering Link 1 = /opt/Gaussian/c.01/g16/l1.exe PID=    801877.
  
 Copyright (c) 1988-2019, Gaussian, Inc.  All Rights Reserved.
  
 This is part of the Gaussian(R) 16 program.  It is based on
 the Gaussian(R) 09 system (copyright 2009, Gaussian, Inc.),
 the Gaussian(R) 03 system (copyright 2003, Gaussian, Inc.),
 the Gaussian(R) 98 system (copyright 1998, Gaussian, Inc.),
 the Gaussian(R) 94 system (copyright 1995, Gaussian, Inc.),
 the Gaussian 92(TM) system (copyright 1992, Gaussian, Inc.),
 the Gaussian 90(TM) system (copyright 1990, Gaussian, Inc.),
 the Gaussian 88(TM) system (copyright 1988, Gaussian, Inc.),
 the Gaussian 86(TM) system (copyright 1986, Carnegie Mellon
 University), and the Gaussian 82(TM) system (copyright 1983,
 Carnegie Mellon University). Gaussian is a federally registered
 trademark of Gaussian, Inc.
  
 This software contains proprietary and confidential information,
 including trade secrets, belonging to Gaussian, Inc.
  
 This software is provided under written license and may be
 used, copied, transmitted, or stored only in accord with that
 written license.
  
 The following legend is applicable only to US Government
 contracts under FAR:
  
                    RESTRICTED RIGHTS LEGEND
  
 Use, reproduction and disclosure by the US Government is
 subject to restrictions as set forth in subparagraphs (a)
 and (c) of the Commercial Computer Software - Restricted
 Rights clause in FAR 52.227-19.
  
 Gaussian, Inc.
 340 Quinnipiac St., Bldg. 40, Wallingford CT 06492
  
  
 ---------------------------------------------------------------
 Warning -- This program may not be used in any manner that
 competes with the business of Gaussian, Inc. or will provide
 assistance to any competitor of Gaussian, Inc.  The licensee
 of this program is prohibited from giving any competitor of
 Gaussian, Inc. access to this program.  By using this program,
 the user acknowledges that Gaussian, Inc. is engaged in the
 business of creating and licensing software in the field of
 computational chemistry and represents and warrants to the
 licensee that it is not a competitor of Gaussian, Inc. and that
 it will not use this program in any manner prohibited above.
 ---------------------------------------------------------------
  

 Cite this work as:
 Gaussian 16, Revision C.01,
 M. J. Frisch, G. W. Trucks, H. B. Schlegel, G. E. Scuseria, 
 M. A. Robb, J. R. Cheeseman, G. Scalmani, V. Barone, 
 G. A. Petersson, H. Nakatsuji, X. Li, M. Caricato, A. V. Marenich, 
 J. Bloino, B. G. Janesko, R. Gomperts, B. Mennucci, H. P. Hratchian, 
 J. V. Ortiz, A. F. Izmaylov, J. L. Sonnenberg, D. Williams-Young, 
 F. Ding, F. Lipparini, F. Egidi, J. Goings, B. Peng, A. Petrone, 
 T. Henderson, D. Ranasinghe, V. G. Zakrzewski, J. Gao, N. Rega, 
 G. Zheng, W. Liang, M. Hada, M. Ehara, K. Toyota, R. Fukuda, 
 J. Hasegawa, M. Ishida, T. Nakajima, Y. Honda, O. Kitao, H. Nakai, 
 T. Vreven, K. Throssell, J. A. Montgomery, Jr., J. E. Peralta, 
 F. Ogliaro, M. J. Bearpark, J. J. Heyd, E. N. Brothers, K. N. Kudin, 
 V. N. Staroverov, T. A. Keith, R. Kobayashi, J. Normand, 
 K. Raghavachari, A. P. Rendell, J. C. Burant, S. S. Iyengar, 
 J. Tomasi, M. Cossi, J. M. Millam, M. Klene, C. Adamo, R. Cammi, 
 J. W. Ochterski, R. L. Martin, K. Morokuma, O. Farkas, 
 J. B. Foresman, and D. J. Fox, Gaussian, Inc., Wallingford CT, 2019.
 
 ******************************************
 Gaussian 16:  ES64L-G16RevC.01  3-Jul-2019
                29-Nov-2024 
 ******************************************
 %chk=ch4.chk
 %mem=500GB
 %nprocshared=128
 Will use up to  128 processors via shared memory.
 --------------------------------------------
 #p RHF/sto-3g scf=tight formcheck=(mo,basis)
 --------------------------------------------
 1/38=1,172=1/1;
 2/12=2,17=6,18=5,40=1/2;
 3/6=3,11=1,25=1,30=1,116=1/1,2,3;
 4//1;
 5/5=2,32=2,38=5/2;
 6/7=2,8=2,9=2,10=2,28=1/1;
 99/5=1,9=1/99;
 Leave Link    1 at Fri Nov 29 14:02:20 2024, MaxMem= 67108864000 cpu:               6.9 elap:               0.1
 (Enter /opt/Gaussian/c.01/g16/l101.exe)
 ----------------------------------------------
 Methane Optimization and Frequency Calculation
 ----------------------------------------------
 Symbolic Z-matrix:
 Charge =  0 Multiplicity = 1
 C                     0.        0.        0. 
 H                     0.        0.        1.08822 
 H                     1.02599   0.       -0.36274 
 H                    -0.51299  -0.88853  -0.36274 
 H                    -0.51299   0.88853  -0.36274 
 
 ITRead=  0  0  0  0  0
 MicOpt= -1 -1 -1 -1 -1
 NAtoms=      5 NQM=        5 NQMF=       0 NMMI=      0 NMMIF=      0
                NMic=       0 NMicF=      0.
                    Isotopes and Nuclear Properties:
 (Nuclear quadrupole moments (NQMom) in fm**2, nuclear magnetic moments (NMagM)
  in nuclear magnetons)

  Atom         1           2           3           4           5
 IAtWgt=          12           1           1           1           1
 AtmWgt=  12.0000000   1.0078250   1.0078250   1.0078250   1.0078250
 NucSpn=           0           1           1           1           1
 AtZEff=  -0.0000000  -0.0000000  -0.0000000  -0.0000000  -0.0000000
 NQMom=    0.0000000   0.0000000   0.0000000   0.0000000   0.0000000
 NMagM=    0.0000000   2.7928460   2.7928460   2.7928460   2.7928460
 AtZNuc=   6.0000000   1.0000000   1.0000000   1.0000000   1.0000000
 Leave Link  101 at Fri Nov 29 14:02:21 2024, MaxMem= 67108864000 cpu:              15.6 elap:               0.1
 (Enter /opt/Gaussian/c.01/g16/l202.exe)
                          Input orientation:                          
 ---------------------------------------------------------------------
 Center     Atomic      Atomic             Coordinates (Angstroms)
 Number     Number       Type             X           Y           Z
 ---------------------------------------------------------------------
      1          6           0        0.000000    0.000000    0.000000
      2          1           0        0.000000    0.000000    1.088224
      3          1           0        1.025988    0.000000   -0.362741
      4          1           0       -0.512994   -0.888532   -0.362741
      5          1           0       -0.512994    0.888532   -0.362741
 ---------------------------------------------------------------------
                    Distance matrix (angstroms):
                    1          2          3          4          5
     1  C    0.000000
     2  H    1.088224   0.000000
     3  H    1.088224   1.777062   0.000000
     4  H    1.088225   1.777063   1.777064   0.000000
     5  H    1.088225   1.777063   1.777064   1.777064   0.000000
 Stoichiometry    CH4
 Framework group  T[O(C),4C3(H)]
 Deg. of freedom     1
 Full point group                 T       NOp  12
 Largest Abelian subgroup         D2      NOp   4
 Largest concise Abelian subgroup D2      NOp   4
                         Standard orientation:                         
 ---------------------------------------------------------------------
 Center     Atomic      Atomic             Coordinates (Angstroms)
 Number     Number       Type             X           Y           Z
 ---------------------------------------------------------------------
      1          6           0        0.000000   -0.000000    0.000000
      2          1           0        0.628286    0.628286    0.628286
      3          1           0       -0.628286   -0.628286    0.628286
      4          1           0       -0.628286    0.628286   -0.628286
      5          1           0        0.628286   -0.628286   -0.628286
 ---------------------------------------------------------------------
 Rotational constants (GHZ):         158.7913367         158.7913367         158.7913367
 Leave Link  202 at Fri Nov 29 14:02:21 2024, MaxMem= 67108864000 cpu:               2.1 elap:               0.0
 (Enter /opt/Gaussian/c.01/g16/l301.exe)
 Standard basis: STO-3G (5D, 7F)
 Ernie: Thresh=  0.10000D-02 Tol=  0.10000D-05 Strict=F.
 There are     3 symmetry adapted cartesian basis functions of A   symmetry.
 There are     2 symmetry adapted cartesian basis functions of B1  symmetry.
 There are     2 symmetry adapted cartesian basis functions of B2  symmetry.
 There are     2 symmetry adapted cartesian basis functions of B3  symmetry.
 There are     3 symmetry adapted basis functions of A   symmetry.
 There are     2 symmetry adapted basis functions of B1  symmetry.
 There are     2 symmetry adapted basis functions of B2  symmetry.
 There are     2 symmetry adapted basis functions of B3  symmetry.
     9 basis functions,    27 primitive gaussians,     9 cartesian basis functions
     5 alpha electrons        5 beta electrons
       nuclear repulsion energy        13.4573172740 Hartrees.
 IExCor=    0 DFT=F Ex=HF Corr=None ExCW=0 ScaHFX=  1.000000
 ScaDFX=  1.000000  1.000000  1.000000  1.000000 ScalE2=  1.000000  1.000000
 IRadAn=      5 IRanWt=     -1 IRanGd=            0 ICorTp=0 IEmpDi=  4
 NAtoms=    5 NActive=    5 NUniq=    2 SFac= 4.00D+00 NAtFMM=   60 NAOKFM=F Big=F
 Integral buffers will be    131072 words long.
 Raffenetti 1 integral format.
 Two-electron integral symmetry is turned on.
 Leave Link  301 at Fri Nov 29 14:02:21 2024, MaxMem= 67108864000 cpu:               5.6 elap:               0.1
 (Enter /opt/Gaussian/c.01/g16/l302.exe)
 NPDir=0 NMtPBC=     1 NCelOv=     1 NCel=       1 NClECP=     1 NCelD=      1
         NCelK=      1 NCelE2=     1 NClLst=     1 CellRange=     0.0.
 One-electron integrals computed using PRISM.
 One-electron integral symmetry used in STVInt
 NBasis=     9 RedAO= T EigKep=  2.20D-01  NBF=     3     2     2     2
 NBsUse=     9 1.00D-06 EigRej= -1.00D+00 NBFU=     3     2     2     2
 Leave Link  302 at Fri Nov 29 14:02:21 2024, MaxMem= 67108864000 cpu:              10.0 elap:               0.1
 (Enter /opt/Gaussian/c.01/g16/l303.exe)
 DipDrv:  MaxL=1.
 Leave Link  303 at Fri Nov 29 14:02:21 2024, MaxMem= 67108864000 cpu:               4.2 elap:               0.1
 (Enter /opt/Gaussian/c.01/g16/l401.exe)
 ExpMin= 1.69D-01 ExpMax= 7.16D+01 ExpMxC= 7.16D+01 IAcc=3 IRadAn=         5 AccDes= 0.00D+00
 Harris functional with IExCor=  205 and IRadAn=       5 diagonalized for initial guess.
 HarFok:  IExCor=  205 AccDes= 0.00D+00 IRadAn=         5 IDoV= 1 UseB2=F ITyADJ=14
 ICtDFT=  3500011 ScaDFX=  1.000000  1.000000  1.000000  1.000000
 FoFCou: FMM=F IPFlag=           0 FMFlag=      100000 FMFlg1=           0
         NFxFlg=           0 DoJE=T BraDBF=F KetDBF=T FulRan=T
         wScrn=  0.000000 ICntrl=       500 IOpCl=  0 I1Cent=   200000004 NGrid=           0
         NMat0=    1 NMatS0=      1 NMatT0=    0 NMatD0=    1 NMtDS0=    0 NMtDT0=    0
 Petite list used in FoFCou.
 Harris En= -39.8828240518721    
 JPrj=0 DoOrth=F DoCkMO=F.
 Initial guess orbital symmetries:
       Occupied  (A) (A) (T) (T) (T)
       Virtual   (T) (T) (T) (A)
 The electronic state of the initial guess is 1-A.
 Leave Link  401 at Fri Nov 29 14:02:22 2024, MaxMem= 67108864000 cpu:              13.3 elap:               0.1
 (Enter /opt/Gaussian/c.01/g16/l502.exe)
 Keep R1 ints in memory in symmetry-blocked form, NReq=25637187.
 FoFCou: FMM=F IPFlag=           0 FMFlag=           0 FMFlg1=           0
         NFxFlg=           0 DoJE=F BraDBF=F KetDBF=F FulRan=T
         wScrn=  0.000000 ICntrl=       600 IOpCl=  0 I1Cent=           0 NGrid=           0
         NMat0=    1 NMatS0=     45 NMatT0=    0 NMatD0=    1 NMtDS0=    0 NMtDT0=    0
 Petite list used in FoFCou.
 Closed shell SCF:
 Using DIIS extrapolation, IDIIS=  1040.
 NGot= 67108864000 LenX= 67108859151 LenY= 67108858269
 Requested convergence on RMS density matrix=1.00D-08 within 128 cycles.
 Requested convergence on MAX density matrix=1.00D-06.
 Requested convergence on             energy=1.00D-06.
 No special actions if energy rises.

 Cycle   1  Pass 1  IDiag  1:
 E= -39.6646398428858    
 DIIS: error= 5.92D-02 at cycle   1 NSaved=   1.
 NSaved= 1 IEnMin= 1 EnMin= -39.6646398428858     IErMin= 1 ErrMin= 5.92D-02
 ErrMax= 5.92D-02  0.00D+00 EMaxC= 1.00D-01 BMatC= 5.31D-02 BMatP= 5.31D-02
 IDIUse=3 WtCom= 4.08D-01 WtEn= 5.92D-01
 Coeff-Com:  0.100D+01
 Coeff-En:   0.100D+01
 Coeff:      0.100D+01
 Gap=     1.216 Goal=   None    Shift=    0.000
 GapD=    1.216 DampG=2.000 DampE=0.500 DampFc=1.0000 IDamp=-1.
 RMSDP=3.68D-02 MaxDP=1.27D-01              OVMax= 0.00D+00

 Cycle   2  Pass 1  IDiag  1:
 E= -39.7248319666147     Delta-E=       -0.060192123729 Rises=F Damp=F
 DIIS: error= 1.23D-02 at cycle   2 NSaved=   2.
 NSaved= 2 IEnMin= 2 EnMin= -39.7248319666147     IErMin= 2 ErrMin= 1.23D-02
 ErrMax= 1.23D-02  0.00D+00 EMaxC= 1.00D-01 BMatC= 1.85D-03 BMatP= 5.31D-02
 IDIUse=3 WtCom= 8.77D-01 WtEn= 1.23D-01
 Coeff-Com:  0.125D+00 0.875D+00
 Coeff-En:   0.000D+00 0.100D+01
 Coeff:      0.110D+00 0.890D+00
 Gap=     1.232 Goal=   None    Shift=    0.000
 RMSDP=5.96D-03 MaxDP=2.64D-02 DE=-6.02D-02 OVMax= 0.00D+00

 Cycle   3  Pass 1  IDiag  1:
 E= -39.7267631985297     Delta-E=       -0.001931231915 Rises=F Damp=F
 DIIS: error= 6.68D-04 at cycle   3 NSaved=   3.
 NSaved= 3 IEnMin= 3 EnMin= -39.7267631985297     IErMin= 3 ErrMin= 6.68D-04
 ErrMax= 6.68D-04  0.00D+00 EMaxC= 1.00D-01 BMatC= 5.99D-06 BMatP= 1.85D-03
 IDIUse=3 WtCom= 9.93D-01 WtEn= 6.68D-03
 Coeff-Com: -0.986D-02-0.837D-02 0.102D+01
 Coeff-En:   0.000D+00 0.000D+00 0.100D+01
 Coeff:     -0.979D-02-0.831D-02 0.102D+01
 Gap=     1.233 Goal=   None    Shift=    0.000
 RMSDP=3.84D-04 MaxDP=1.25D-03 DE=-1.93D-03 OVMax= 0.00D+00

 Cycle   4  Pass 1  IDiag  1:
 E= -39.7267721789545     Delta-E=       -0.000008980425 Rises=F Damp=F
 DIIS: error= 1.54D-04 at cycle   4 NSaved=   4.
 NSaved= 4 IEnMin= 4 EnMin= -39.7267721789545     IErMin= 4 ErrMin= 1.54D-04
 ErrMax= 1.54D-04  0.00D+00 EMaxC= 1.00D-01 BMatC= 1.24D-07 BMatP= 5.99D-06
 IDIUse=3 WtCom= 9.98D-01 WtEn= 1.54D-03
 Coeff-Com:  0.273D-02-0.165D-02-0.316D+00 0.132D+01
 Coeff-En:   0.000D+00 0.000D+00 0.000D+00 0.100D+01
 Coeff:      0.272D-02-0.165D-02-0.316D+00 0.131D+01
 Gap=     1.233 Goal=   None    Shift=    0.000
 RMSDP=7.63D-05 MaxDP=5.27D-04 DE=-8.98D-06 OVMax= 0.00D+00

 Cycle   5  Pass 1  IDiag  1:
 E= -39.7267723848278     Delta-E=       -0.000000205873 Rises=F Damp=F
 DIIS: error= 4.89D-07 at cycle   5 NSaved=   5.
 NSaved= 5 IEnMin= 5 EnMin= -39.7267723848278     IErMin= 5 ErrMin= 4.89D-07
 ErrMax= 4.89D-07  0.00D+00 EMaxC= 1.00D-01 BMatC= 2.49D-12 BMatP= 1.24D-07
 IDIUse=1 WtCom= 1.00D+00 WtEn= 0.00D+00
 Coeff-Com: -0.326D-05-0.457D-04 0.870D-04 0.207D-02 0.998D+00
 Coeff:     -0.326D-05-0.457D-04 0.870D-04 0.207D-02 0.998D+00
 Gap=     1.233 Goal=   None    Shift=    0.000
 RMSDP=2.03D-07 MaxDP=6.77D-07 DE=-2.06D-07 OVMax= 0.00D+00

 Cycle   6  Pass 1  IDiag  1:
 E= -39.7267723848302     Delta-E=       -0.000000000002 Rises=F Damp=F
 DIIS: error= 6.29D-10 at cycle   6 NSaved=   6.
 NSaved= 6 IEnMin= 6 EnMin= -39.7267723848302     IErMin= 6 ErrMin= 6.29D-10
 ErrMax= 6.29D-10  0.00D+00 EMaxC= 1.00D-01 BMatC= 6.06D-18 BMatP= 2.49D-12
 IDIUse=1 WtCom= 1.00D+00 WtEn= 0.00D+00
 Large coefficients: NSaved=  6 BigCof=    0.00 CofMax=   10.00 Det= 1.45D-27
 Inversion failed.  Reducing to  5 matrices.
 Coeff-Com: -0.222D-09 0.128D-06-0.249D-05 0.149D-02 0.999D+00
 Coeff:     -0.222D-09 0.128D-06-0.249D-05 0.149D-02 0.999D+00
 Gap=     1.233 Goal=   None    Shift=    0.000
 RMSDP=3.73D-10 MaxDP=1.49D-09 DE=-2.36D-12 OVMax= 0.00D+00

 SCF Done:  E(RHF) =  -39.7267723848     A.U. after    6 cycles
            NFock=  6  Conv=0.37D-09     -V/T= 2.0070
 KE= 3.944948848677D+01 PE=-1.188279752362D+02 EE= 2.619439709061D+01
 Leave Link  502 at Fri Nov 29 14:02:22 2024, MaxMem= 67108864000 cpu:              13.9 elap:               0.1
 (Enter /opt/Gaussian/c.01/g16/l601.exe)
 Copying SCF densities to generalized density rwf, IOpCl= 0 IROHF=0.

 **********************************************************************

            Population analysis using the SCF Density.

 **********************************************************************

 Orbital symmetries:
       Occupied  (A) (A) (T) (T) (T)
       Virtual   (T) (T) (T) (A)
 The electronic state is 1-A.
 Alpha  occ. eigenvalues --  -11.03014  -0.90940  -0.51844  -0.51844  -0.51844
 Alpha virt. eigenvalues --    0.71459   0.71459   0.71459   0.75316
          Condensed to atoms (all electrons):
               1          2          3          4          5
     1  C    4.717911   0.384746   0.384746   0.384746   0.384746
     2  H    0.384746   0.610313  -0.019761  -0.019761  -0.019761
     3  H    0.384746  -0.019761   0.610313  -0.019761  -0.019761
     4  H    0.384746  -0.019761  -0.019761   0.610313  -0.019761
     5  H    0.384746  -0.019761  -0.019761  -0.019761   0.610313
 Mulliken charges:
               1
     1  C   -0.256895
     2  H    0.064224
     3  H    0.064224
     4  H    0.064224
     5  H    0.064224
 Sum of Mulliken charges =  -0.00000
 Mulliken charges with hydrogens summed into heavy atoms:
               1
     1  C   -0.000000
 Electronic spatial extent (au):  <R**2>=             34.4053
 Charge=             -0.0000 electrons
 Dipole moment (field-independent basis, Debye):
    X=             -0.0000    Y=              0.0000    Z=              0.0000  Tot=              0.0000
 Quadrupole moment (field-independent basis, Debye-Ang):
   XX=             -7.8413   YY=             -7.8413   ZZ=             -7.8413
   XY=              0.0000   XZ=              0.0000   YZ=              0.0000
 Traceless Quadrupole moment (field-independent basis, Debye-Ang):
   XX=             -0.0000   YY=             -0.0000   ZZ=             -0.0000
   XY=              0.0000   XZ=              0.0000   YZ=              0.0000
 Octapole moment (field-independent basis, Debye-Ang**2):
  XXX=             -0.0000  YYY=              0.0000  ZZZ=              0.0000  XYY=              0.0000
  XXY=              0.0000  XXZ=              0.0000  XZZ=              0.0000  YZZ=             -0.0000
  YYZ=              0.0000  XYZ=              0.5834
 Hexadecapole moment (field-independent basis, Debye-Ang**3):
 XXXX=            -13.7666 YYYY=            -13.7666 ZZZZ=            -13.7666 XXXY=              0.0000
 XXXZ=              0.0000 YYYX=             -0.0000 YYYZ=              0.0000 ZZZX=             -0.0000
 ZZZY=             -0.0000 XXYY=             -4.2054 XXZZ=             -4.2054 YYZZ=             -4.2054
 XXYZ=              0.0000 YYXZ=              0.0000 ZZXY=              0.0000
 N-N= 1.345731727402D+01 E-N=-1.188279752288D+02  KE= 3.944948848677D+01
 Symmetry A    KE= 3.363544123181D+01
 Symmetry B1   KE= 1.938015751655D+00
 Symmetry B2   KE= 1.938015751655D+00
 Symmetry B3   KE= 1.938015751655D+00
 No NMR shielding tensors so no spin-rotation constants.
 Leave Link  601 at Fri Nov 29 14:02:22 2024, MaxMem= 67108864000 cpu:              11.3 elap:               0.1
 (Enter /opt/Gaussian/c.01/g16/l9999.exe)
 Unable to Open any file for archive entry.
 1\1\GINC-SPCC-037\SP\RHF\STO-3G\C1H4\S2420025\29-Nov-2024\0\\#p RHF/st
 o-3g scf=tight formcheck=(mo,basis)\\Methane Optimization and Frequenc
 y Calculation\\0,1\C,0,0.,0.,0.\H,0,0.,0.,1.088224\H,0,1.025988,0.,-0.
 362741\H,0,-0.512994,-0.888532,-0.362741\H,0,-0.512994,0.888532,-0.362
 741\\Version=ES64L-G16RevC.01\State=1-A\HF=-39.7267724\RMSD=3.730e-10\
 Dipole=0.,0.,0.\Quadrupole=0.,0.,0.,0.,0.,0.\PG=T [O(C1),4C3(H1)]\\@
 The archive entry for this job was punched.


 THERE IS AN OLD, OLD RECIPE IN MAINE FOR STEWING COOT. PLACE THE
 BIRD IN A KETTLE OF WATER WITH A RED BUILDING BRICK FREE OF MORTAR AND
 BLEMISHES. PARBOIL THE COOT AND BRICK TOGETHER FOR THREE HOURS.
 POUR OFF THE WATER, REFILL THE KETTLE, AND AGAIN PARBOIL FOR THREE HOURS.
 ONCE AGAIN POUR OFF THE WATER, FOR THE LAST TIME ADD FRESH WATER,
 AND LET THE COOT AND BRICK SIMMER TOGETHER OVERNIGHT. IN THE MORNING,
 THROW AWAY THE COOT AND EAT THE BRICK.
 FChkPn:  Coordinates translated and rotated.
 FChkPn:  Coordinates match /B/ after translation and rotation.
 Job cpu time:       0 days  0 hours  1 minutes 32.0 seconds.
 Elapsed time:       0 days  0 hours  0 minutes  0.9 seconds.
 File lengths (MBytes):  RWF=     10 Int=      0 D2E=      0 Chk=     34 Scr=      1
 Normal termination of Gaussian 16 at Fri Nov 29 14:02:22 2024.
